MODEL 1
REMARK VINA RESULT:    -4.832      0.000      0.000
REMARK INTER + INTRA:          -6.301
REMARK INTER:                  -5.821
REMARK INTRA:                  -0.481
REMARK UNBOUND:                -0.481
REMARK  Name = C15H13FO2
REMARK  5 active torsions:
REMARK  status: ('A' for Active; 'I' for Inactive)
REMARK    1  A    between atoms: C_9  and  C_18
REMARK    2  A    between atoms: C_10  and  C_11
REMARK    3  A    between atoms: C_13  and  C_18
REMARK    4  A    between atoms: O_15  and  C_16
REMARK    5  A    between atoms: C_16  and  C_18
REMARK                            x       y       z     vdW  Elec       q    Type
REMARK                         _______ _______ _______ _____ _____    ______ ____
ROOT
ATOM      1  C   UNL     1      -6.393   0.199 107.551  0.00  0.00    +0.000 A 
ATOM      2  C   UNL     1      -7.715   2.620 107.229  0.00  0.00    +0.000 A 
ATOM      3  C   UNL     1      -7.004   0.510 106.329  0.00  0.00    +0.000 A 
ATOM      4  C   UNL     1      -6.413   1.095 108.637  0.00  0.00    +0.000 A 
ATOM      5  C   UNL     1      -7.080   2.312 108.432  0.00  0.00    +0.000 A 
ATOM      6  C   UNL     1      -7.677   1.727 106.154  0.00  0.00    +0.000 A 
ATOM      7  F   UNL     1      -7.138   3.240 109.401  0.00  0.00    +0.000 F 
ENDROOT
BRANCH   4  13
ATOM      8  C   UNL     1      -4.407   0.419 110.008  0.00  0.00    +0.000 A 
ATOM      9  C   UNL     1      -6.500   0.759 111.135  0.00  0.00    +0.000 A 
ATOM     10  C   UNL     1      -3.805   0.075 111.219  0.00  0.00    +0.000 A 
ATOM     11  C   UNL     1      -5.895   0.434 112.352  0.00  0.00    +0.000 A 
ATOM     12  C   UNL     1      -4.548   0.087 112.394  0.00  0.00    +0.000 A 
ATOM     13  C   UNL     1      -5.772   0.756 109.931  0.00  0.00    +0.000 A 
ENDBRANCH   4  13
BRANCH   6  15
ATOM     14  C   UNL     1      -9.073   0.756 104.271  0.00  0.00    +0.000 C 
ATOM     15  C   UNL     1      -8.403   2.010 104.846  0.00  0.00    +0.000 C 
BRANCH  15  17
ATOM     16  O   UNL     1      -7.992   2.989 102.671  0.00  0.00    +0.000 OA
ATOM     17  C   UNL     1      -7.543   2.670 103.765  0.00  0.00    +0.000 C 
BRANCH  17  18
ATOM     18  O   UNL     1      -6.253   2.919 104.077  0.00  0.00    +0.000 OA
ATOM     19  H   UNL     1      -5.650   3.076 103.324  0.00  0.00    +0.000 HD
ENDBRANCH  17  18
ENDBRANCH  15  17
ENDBRANCH   6  15
TORSDOF 4
ENDMDL
MODEL 2
REMARK VINA RESULT:    -4.822     12.568     13.473
REMARK INTER + INTRA:          -6.289
REMARK INTER:                  -5.769
REMARK INTRA:                  -0.519
REMARK UNBOUND:                -0.481
REMARK  Name = C15H13FO2
REMARK  5 active torsions:
REMARK  status: ('A' for Active; 'I' for Inactive)
REMARK    1  A    between atoms: C_9  and  C_18
REMARK    2  A    between atoms: C_10  and  C_11
REMARK    3  A    between atoms: C_13  and  C_18
REMARK    4  A    between atoms: O_15  and  C_16
REMARK    5  A    between atoms: C_16  and  C_18
REMARK                            x       y       z     vdW  Elec       q    Type
REMARK                         _______ _______ _______ _____ _____    ______ ____
ROOT
ATOM      1  C   UNL     1      -4.172 -10.721 107.962  0.00  0.00    +0.000 A 
ATOM      2  C   UNL     1      -1.463 -11.020 107.427  0.00  0.00    +0.000 A 
ATOM      3  C   UNL     1      -3.680 -10.493 106.669  0.00  0.00    +0.000 A 
ATOM      4  C   UNL     1      -3.327 -11.119 109.015  0.00  0.00    +0.000 A 
ATOM      5  C   UNL     1      -1.967 -11.271 108.703  0.00  0.00    +0.000 A 
ATOM      6  C   UNL     1      -2.315 -10.637 106.387  0.00  0.00    +0.000 A 
ATOM      7  F   UNL     1      -1.085 -11.665 109.635  0.00  0.00    +0.000 F 
ENDROOT
BRANCH   4  13
ATOM      8  C   UNL     1      -4.835 -12.326 110.636  0.00  0.00    +0.000 A 
ATOM      9  C   UNL     1      -3.389 -10.607 111.483  0.00  0.00    +0.000 A 
ATOM     10  C   UNL     1      -5.351 -12.530 111.917  0.00  0.00    +0.000 A 
ATOM     11  C   UNL     1      -3.890 -10.823 112.770  0.00  0.00    +0.000 A 
ATOM     12  C   UNL     1      -4.875 -11.781 112.987  0.00  0.00    +0.000 A 
ATOM     13  C   UNL     1      -3.852 -11.351 110.382  0.00  0.00    +0.000 A 
ENDBRANCH   4  13
BRANCH   6  15
ATOM     14  C   UNL     1      -2.621  -9.217 104.307  0.00  0.00    +0.000 C 
ATOM     15  C   UNL     1      -1.790 -10.306 104.997  0.00  0.00    +0.000 C 
BRANCH  15  17
ATOM     16  O   UNL     1      -1.010 -11.458 103.017  0.00  0.00    +0.000 OA
ATOM     17  C   UNL     1      -1.648 -11.509 104.062  0.00  0.00    +0.000 C 
BRANCH  17  18
ATOM     18  O   UNL     1      -2.238 -12.660 104.451  0.00  0.00    +0.000 OA
ATOM     19  H   UNL     1      -1.872 -13.081 105.254  0.00  0.00    +0.000 HD
ENDBRANCH  17  18
ENDBRANCH  15  17
ENDBRANCH   6  15
TORSDOF 4
ENDMDL
MODEL 3
REMARK VINA RESULT:    -4.766     12.651     14.393
REMARK INTER + INTRA:          -6.221
REMARK INTER:                  -5.594
REMARK INTRA:                  -0.627
REMARK UNBOUND:                -0.481
REMARK  Name = C15H13FO2
REMARK  5 active torsions:
REMARK  status: ('A' for Active; 'I' for Inactive)
REMARK    1  A    between atoms: C_9  and  C_18
REMARK    2  A    between atoms: C_10  and  C_11
REMARK    3  A    between atoms: C_13  and  C_18
REMARK    4  A    between atoms: O_15  and  C_16
REMARK    5  A    between atoms: C_16  and  C_18
REMARK                            x       y       z     vdW  Elec       q    Type
REMARK                         _______ _______ _______ _____ _____    ______ ____
ROOT
ATOM      1  C   UNL     1      -3.540 -10.724 106.552  0.00  0.00    +0.000 A 
ATOM      2  C   UNL     1      -1.366 -10.894 108.271  0.00  0.00    +0.000 A 
ATOM      3  C   UNL     1      -3.742 -10.918 107.925  0.00  0.00    +0.000 A 
ATOM      4  C   UNL     1      -2.250 -10.594 106.006  0.00  0.00    +0.000 A 
ATOM      5  C   UNL     1      -1.177 -10.674 106.907  0.00  0.00    +0.000 A 
ATOM      6  C   UNL     1      -2.654 -11.009 108.803  0.00  0.00    +0.000 A 
ATOM      7  F   UNL     1       0.091 -10.543 106.486  0.00  0.00    +0.000 F 
ENDROOT
BRANCH   4  13
ATOM      8  C   UNL     1      -2.356  -9.177 103.922  0.00  0.00    +0.000 A 
ATOM      9  C   UNL     1      -1.520 -11.420 103.737  0.00  0.00    +0.000 A 
ATOM     10  C   UNL     1      -2.187  -8.995 102.549  0.00  0.00    +0.000 A 
ATOM     11  C   UNL     1      -1.331 -11.234 102.365  0.00  0.00    +0.000 A 
ATOM     12  C   UNL     1      -1.669 -10.023 101.769  0.00  0.00    +0.000 A 
ATOM     13  C   UNL     1      -2.042 -10.397 104.551  0.00  0.00    +0.000 A 
ENDBRANCH   4  13
BRANCH   6  15
ATOM     14  C   UNL     1      -4.362 -11.115 110.676  0.00  0.00    +0.000 C 
ATOM     15  C   UNL     1      -2.893 -11.301 110.278  0.00  0.00    +0.000 C 
BRANCH  15  17
ATOM     16  O   UNL     1      -2.074  -9.298 111.362  0.00  0.00    +0.000 OA
ATOM     17  C   UNL     1      -2.000 -10.515 111.241  0.00  0.00    +0.000 C 
BRANCH  17  18
ATOM     18  O   UNL     1      -1.130 -11.227 111.988  0.00  0.00    +0.000 OA
ATOM     19  H   UNL     1      -1.402 -12.138 112.216  0.00  0.00    +0.000 HD
ENDBRANCH  17  18
ENDBRANCH  15  17
ENDBRANCH   6  15
TORSDOF 4
ENDMDL
MODEL 4
REMARK VINA RESULT:    -4.756     13.499     15.491
REMARK INTER + INTRA:          -6.210
REMARK INTER:                  -5.580
REMARK INTRA:                  -0.630
REMARK UNBOUND:                -0.481
REMARK  Name = C15H13FO2
REMARK  5 active torsions:
REMARK  status: ('A' for Active; 'I' for Inactive)
REMARK    1  A    between atoms: C_9  and  C_18
REMARK    2  A    between atoms: C_10  and  C_11
REMARK    3  A    between atoms: C_13  and  C_18
REMARK    4  A    between atoms: O_15  and  C_16
REMARK    5  A    between atoms: C_16  and  C_18
REMARK                            x       y       z     vdW  Elec       q    Type
REMARK                         _______ _______ _______ _____ _____    ______ ____
ROOT
ATOM      1  C   UNL     1     -15.235  -8.001 107.118  0.00  0.00    +0.000 A 
ATOM      2  C   UNL     1     -16.376  -9.570 109.104  0.00  0.00    +0.000 A 
ATOM      3  C   UNL     1     -15.247  -7.556 108.447  0.00  0.00    +0.000 A 
ATOM      4  C   UNL     1     -15.777  -9.247 106.751  0.00  0.00    +0.000 A 
ATOM      5  C   UNL     1     -16.335 -10.016 107.783  0.00  0.00    +0.000 A 
ATOM      6  C   UNL     1     -15.823  -8.336 109.458  0.00  0.00    +0.000 A 
ATOM      7  F   UNL     1     -16.860 -11.227 107.537  0.00  0.00    +0.000 F 
ENDROOT
BRANCH   4  13
ATOM      8  C   UNL     1     -16.945  -9.733 104.569  0.00  0.00    +0.000 A 
ATOM      9  C   UNL     1     -14.585 -10.143 104.717  0.00  0.00    +0.000 A 
ATOM     10  C   UNL     1     -16.948 -10.193 103.251  0.00  0.00    +0.000 A 
ATOM     11  C   UNL     1     -14.580 -10.584 103.391  0.00  0.00    +0.000 A 
ATOM     12  C   UNL     1     -15.763 -10.614 102.659  0.00  0.00    +0.000 A 
ATOM     13  C   UNL     1     -15.769  -9.709 105.342  0.00  0.00    +0.000 A 
ENDBRANCH   4  13
BRANCH   6  15
ATOM     14  C   UNL     1     -15.122  -6.485 111.046  0.00  0.00    +0.000 C 
ATOM     15  C   UNL     1     -15.898  -7.797 110.880  0.00  0.00    +0.000 C 
BRANCH  15  17
ATOM     16  O   UNL     1     -14.347  -9.287 111.990  0.00  0.00    +0.000 OA
ATOM     17  C   UNL     1     -15.465  -8.787 111.964  0.00  0.00    +0.000 C 
BRANCH  17  18
ATOM     18  O   UNL     1     -16.367  -9.074 112.927  0.00  0.00    +0.000 OA
ATOM     19  H   UNL     1     -16.164  -9.846 113.491  0.00  0.00    +0.000 HD
ENDBRANCH  17  18
ENDBRANCH  15  17
ENDBRANCH   6  15
TORSDOF 4
ENDMDL
MODEL 5
REMARK VINA RESULT:    -4.679      2.750      6.718
REMARK INTER + INTRA:          -6.117
REMARK INTER:                  -5.521
REMARK INTRA:                  -0.596
REMARK UNBOUND:                -0.481
REMARK  Name = C15H13FO2
REMARK  5 active torsions:
REMARK  status: ('A' for Active; 'I' for Inactive)
REMARK    1  A    between atoms: C_9  and  C_18
REMARK    2  A    between atoms: C_10  and  C_11
REMARK    3  A    between atoms: C_13  and  C_18
REMARK    4  A    between atoms: O_15  and  C_16
REMARK    5  A    between atoms: C_16  and  C_18
REMARK                            x       y       z     vdW  Elec       q    Type
REMARK                         _______ _______ _______ _____ _____    ______ ____
ROOT
ATOM      1  C   UNL     1      -7.455   0.411 106.204  0.00  0.00    +0.000 A 
ATOM      2  C   UNL     1      -8.011   2.387 108.073  0.00  0.00    +0.000 A 
ATOM      3  C   UNL     1      -7.110   0.224 107.550  0.00  0.00    +0.000 A 
ATOM      4  C   UNL     1      -8.099   1.581 105.761  0.00  0.00    +0.000 A 
ATOM      5  C   UNL     1      -8.374   2.552 106.736  0.00  0.00    +0.000 A 
ATOM      6  C   UNL     1      -7.383   1.215 108.502  0.00  0.00    +0.000 A 
ATOM      7  F   UNL     1      -9.002   3.694 106.416  0.00  0.00    +0.000 F 
ENDROOT
BRANCH   4  13
ATOM      8  C   UNL     1      -7.837   2.773 103.554  0.00  0.00    +0.000 A 
ATOM      9  C   UNL     1      -9.418   0.973 103.699  0.00  0.00    +0.000 A 
ATOM     10  C   UNL     1      -8.186   2.979 102.219  0.00  0.00    +0.000 A 
ATOM     11  C   UNL     1      -9.755   1.163 102.356  0.00  0.00    +0.000 A 
ATOM     12  C   UNL     1      -9.143   2.169 101.617  0.00  0.00    +0.000 A 
ATOM     13  C   UNL     1      -8.453   1.776 104.334  0.00  0.00    +0.000 A 
ENDBRANCH   4  13
BRANCH   6  15
ATOM     14  C   UNL     1      -7.251   2.242 110.819  0.00  0.00    +0.000 C 
ATOM     15  C   UNL     1      -6.927   1.026 109.943  0.00  0.00    +0.000 C 
BRANCH  15  17
ATOM     16  O   UNL     1      -5.088  -0.426 110.546  0.00  0.00    +0.000 OA
ATOM     17  C   UNL     1      -5.451   0.658 110.105  0.00  0.00    +0.000 C 
BRANCH  17  18
ATOM     18  O   UNL     1      -4.544   1.577 109.710  0.00  0.00    +0.000 OA
ATOM     19  H   UNL     1      -4.848   2.506 109.699  0.00  0.00    +0.000 HD
ENDBRANCH  17  18
ENDBRANCH  15  17
ENDBRANCH   6  15
TORSDOF 4
ENDMDL
MODEL 6
REMARK VINA RESULT:    -4.652      3.170      6.957
REMARK INTER + INTRA:          -6.085
REMARK INTER:                  -5.509
REMARK INTRA:                  -0.576
REMARK UNBOUND:                -0.481
REMARK  Name = C15H13FO2
REMARK  5 active torsions:
REMARK  status: ('A' for Active; 'I' for Inactive)
REMARK    1  A    between atoms: C_9  and  C_18
REMARK    2  A    between atoms: C_10  and  C_11
REMARK    3  A    between atoms: C_13  and  C_18
REMARK    4  A    between atoms: O_15  and  C_16
REMARK    5  A    between atoms: C_16  and  C_18
REMARK                            x       y       z     vdW  Elec       q    Type
REMARK                         _______ _______ _______ _____ _____    ______ ____
ROOT
ATOM      1  C   UNL     1      -8.344   3.004 106.357  0.00  0.00    +0.000 A 
ATOM      2  C   UNL     1      -6.823   0.965 107.471  0.00  0.00    +0.000 A 
ATOM      3  C   UNL     1      -7.945   3.076 107.699  0.00  0.00    +0.000 A 
ATOM      4  C   UNL     1      -7.981   1.921 105.535  0.00  0.00    +0.000 A 
ATOM      5  C   UNL     1      -7.203   0.916 106.130  0.00  0.00    +0.000 A 
ATOM      6  C   UNL     1      -7.180   2.052 108.274  0.00  0.00    +0.000 A 
ATOM      7  F   UNL     1      -6.790  -0.147 105.423  0.00  0.00    +0.000 F 
ENDROOT
BRANCH   4  13
ATOM      8  C   UNL     1      -7.872   2.701 103.139  0.00  0.00    +0.000 A 
ATOM      9  C   UNL     1      -9.381   0.918 103.693  0.00  0.00    +0.000 A 
ATOM     10  C   UNL     1      -8.294   2.653 101.810  0.00  0.00    +0.000 A 
ATOM     11  C   UNL     1      -9.791   0.853 102.358  0.00  0.00    +0.000 A 
ATOM     12  C   UNL     1      -9.251   1.725 101.417  0.00  0.00    +0.000 A 
ATOM     13  C   UNL     1      -8.413   1.846 104.118  0.00  0.00    +0.000 A 
ENDBRANCH   4  13
BRANCH   6  15
ATOM     14  C   UNL     1      -6.038   0.879 110.213  0.00  0.00    +0.000 C 
ATOM     15  C   UNL     1      -6.827   2.111 109.754  0.00  0.00    +0.000 C 
BRANCH  15  17
ATOM     16  O   UNL     1      -8.725   1.412 111.083  0.00  0.00    +0.000 OA
ATOM     17  C   UNL     1      -8.018   2.333 110.689  0.00  0.00    +0.000 C 
BRANCH  17  18
ATOM     18  O   UNL     1      -8.251   3.599 111.096  0.00  0.00    +0.000 OA
ATOM     19  H   UNL     1      -9.183   3.893 111.077  0.00  0.00    +0.000 HD
ENDBRANCH  17  18
ENDBRANCH  15  17
ENDBRANCH   6  15
TORSDOF 4
ENDMDL
MODEL 7
REMARK VINA RESULT:    -4.621     12.611     13.491
REMARK INTER + INTRA:          -6.047
REMARK INTER:                  -5.478
REMARK INTRA:                  -0.569
REMARK UNBOUND:                -0.481
REMARK  Name = C15H13FO2
REMARK  5 active torsions:
REMARK  status: ('A' for Active; 'I' for Inactive)
REMARK    1  A    between atoms: C_9  and  C_18
REMARK    2  A    between atoms: C_10  and  C_11
REMARK    3  A    between atoms: C_13  and  C_18
REMARK    4  A    between atoms: O_15  and  C_16
REMARK    5  A    between atoms: C_16  and  C_18
REMARK                            x       y       z     vdW  Elec       q    Type
REMARK                         _______ _______ _______ _____ _____    ______ ____
ROOT
ATOM      1  C   UNL     1     -14.766  -7.189 108.795  0.00  0.00    +0.000 A 
ATOM      2  C   UNL     1     -16.449  -9.394 108.683  0.00  0.00    +0.000 A 
ATOM      3  C   UNL     1     -14.943  -7.879 107.588  0.00  0.00    +0.000 A 
ATOM      4  C   UNL     1     -15.436  -7.572 109.971  0.00  0.00    +0.000 A 
ATOM      5  C   UNL     1     -16.287  -8.684 109.873  0.00  0.00    +0.000 A 
ATOM      6  C   UNL     1     -15.787  -8.995 107.519  0.00  0.00    +0.000 A 
ATOM      7  F   UNL     1     -16.985  -9.116 110.935  0.00  0.00    +0.000 F 
ENDROOT
BRANCH   4  13
ATOM      8  C   UNL     1     -14.729  -7.488 112.390  0.00  0.00    +0.000 A 
ATOM      9  C   UNL     1     -15.551  -5.477 111.369  0.00  0.00    +0.000 A 
ATOM     10  C   UNL     1     -14.565  -6.814 113.601  0.00  0.00    +0.000 A 
ATOM     11  C   UNL     1     -15.369  -4.793 112.575  0.00  0.00    +0.000 A 
ATOM     12  C   UNL     1     -14.881  -5.463 113.693  0.00  0.00    +0.000 A 
ATOM     13  C   UNL     1     -15.238  -6.843 111.247  0.00  0.00    +0.000 A 
ENDBRANCH   4  13
BRANCH   6  15
ATOM     14  C   UNL     1     -14.707  -9.537 105.287  0.00  0.00    +0.000 C 
ATOM     15  C   UNL     1     -15.902  -9.778 106.218  0.00  0.00    +0.000 C 
BRANCH  15  17
ATOM     16  O   UNL     1     -17.919 -10.476 105.078  0.00  0.00    +0.000 OA
ATOM     17  C   UNL     1     -17.204  -9.552 105.446  0.00  0.00    +0.000 C 
BRANCH  17  18
ATOM     18  O   UNL     1     -17.560  -8.272 105.207  0.00  0.00    +0.000 OA
ATOM     19  H   UNL     1     -18.504  -8.055 105.338  0.00  0.00    +0.000 HD
ENDBRANCH  17  18
ENDBRANCH  15  17
ENDBRANCH   6  15
TORSDOF 4
ENDMDL
MODEL 8
REMARK VINA RESULT:    -4.616     12.664     14.537
REMARK INTER + INTRA:          -6.041
REMARK INTER:                  -5.498
REMARK INTRA:                  -0.544
REMARK UNBOUND:                -0.481
REMARK  Name = C15H13FO2
REMARK  5 active torsions:
REMARK  status: ('A' for Active; 'I' for Inactive)
REMARK    1  A    between atoms: C_9  and  C_18
REMARK    2  A    between atoms: C_10  and  C_11
REMARK    3  A    between atoms: C_13  and  C_18
REMARK    4  A    between atoms: O_15  and  C_16
REMARK    5  A    between atoms: C_16  and  C_18
REMARK                            x       y       z     vdW  Elec       q    Type
REMARK                         _______ _______ _______ _____ _____    ______ ____
ROOT
ATOM      1  C   UNL     1      -1.099 -10.530 105.960  0.00  0.00    +0.000 A 
ATOM      2  C   UNL     1      -3.579 -10.599 107.206  0.00  0.00    +0.000 A 
ATOM      3  C   UNL     1      -1.184 -10.641 107.355  0.00  0.00    +0.000 A 
ATOM      4  C   UNL     1      -2.249 -10.467 105.153  0.00  0.00    +0.000 A 
ATOM      5  C   UNL     1      -3.484 -10.516 105.817  0.00  0.00    +0.000 A 
ATOM      6  C   UNL     1      -2.429 -10.674 107.996  0.00  0.00    +0.000 A 
ATOM      7  F   UNL     1      -4.639 -10.481 105.132  0.00  0.00    +0.000 F 
ENDROOT
BRANCH   4  13
ATOM      8  C   UNL     1      -2.692  -9.232 102.999  0.00  0.00    +0.000 A 
ATOM      9  C   UNL     1      -1.519 -11.324 102.896  0.00  0.00    +0.000 A 
ATOM     10  C   UNL     1      -2.628  -9.122 101.609  0.00  0.00    +0.000 A 
ATOM     11  C   UNL     1      -1.436 -11.207 101.505  0.00  0.00    +0.000 A 
ATOM     12  C   UNL     1      -1.994 -10.108 100.861  0.00  0.00    +0.000 A 
ATOM     13  C   UNL     1      -2.153 -10.341 103.678  0.00  0.00    +0.000 A 
ENDBRANCH   4  13
BRANCH   6  15
ATOM     14  C   UNL     1      -2.495  -9.309 110.134  0.00  0.00    +0.000 C 
ATOM     15  C   UNL     1      -2.497 -10.713 109.517  0.00  0.00    +0.000 C 
BRANCH  15  17
ATOM     16  O   UNL     1      -0.543 -11.084 110.895  0.00  0.00    +0.000 OA
ATOM     17  C   UNL     1      -1.417 -11.567 110.185  0.00  0.00    +0.000 C 
BRANCH  17  18
ATOM     18  O   UNL     1      -1.480 -12.901 109.984  0.00  0.00    +0.000 OA
ATOM     19  H   UNL     1      -0.736 -13.297 109.490  0.00  0.00    +0.000 HD
ENDBRANCH  17  18
ENDBRANCH  15  17
ENDBRANCH   6  15
TORSDOF 4
ENDMDL
MODEL 9
REMARK VINA RESULT:    -4.551      4.111      5.210
REMARK INTER + INTRA:          -5.963
REMARK INTER:                  -5.392
REMARK INTRA:                  -0.571
REMARK UNBOUND:                -0.481
REMARK  Name = C15H13FO2
REMARK  5 active torsions:
REMARK  status: ('A' for Active; 'I' for Inactive)
REMARK    1  A    between atoms: C_9  and  C_18
REMARK    2  A    between atoms: C_10  and  C_11
REMARK    3  A    between atoms: C_13  and  C_18
REMARK    4  A    between atoms: O_15  and  C_16
REMARK    5  A    between atoms: C_16  and  C_18
REMARK                            x       y       z     vdW  Elec       q    Type
REMARK                         _______ _______ _______ _____ _____    ______ ____
ROOT
ATOM      1  C   UNL     1      -5.913  -1.977 108.889  0.00  0.00    +0.000 A 
ATOM      2  C   UNL     1      -5.544   0.261 107.287  0.00  0.00    +0.000 A 
ATOM      3  C   UNL     1      -6.799  -0.895 108.976  0.00  0.00    +0.000 A 
ATOM      4  C   UNL     1      -4.830  -1.976 107.989  0.00  0.00    +0.000 A 
ATOM      5  C   UNL     1      -4.683  -0.833 107.189  0.00  0.00    +0.000 A 
ATOM      6  C   UNL     1      -6.622   0.242 108.176  0.00  0.00    +0.000 A 
ATOM      7  F   UNL     1      -3.693  -0.744 106.287  0.00  0.00    +0.000 F 
ENDROOT
BRANCH   4  13
ATOM      8  C   UNL     1      -2.877  -3.309 108.865  0.00  0.00    +0.000 A 
ATOM      9  C   UNL     1      -3.973  -4.066 106.869  0.00  0.00    +0.000 A 
ATOM     10  C   UNL     1      -1.973  -4.369 108.778  0.00  0.00    +0.000 A 
ATOM     11  C   UNL     1      -3.083  -5.141 106.790  0.00  0.00    +0.000 A 
ATOM     12  C   UNL     1      -2.079  -5.289 107.742  0.00  0.00    +0.000 A 
ATOM     13  C   UNL     1      -3.891  -3.120 107.907  0.00  0.00    +0.000 A 
ENDBRANCH   4  13
BRANCH   6  15
ATOM     14  C   UNL     1      -7.770   2.192 107.029  0.00  0.00    +0.000 C 
ATOM     15  C   UNL     1      -7.548   1.438 108.345  0.00  0.00    +0.000 C 
BRANCH  15  17
ATOM     16  O   UNL     1      -7.845   2.698 110.390  0.00  0.00    +0.000 OA
ATOM     17  C   UNL     1      -7.127   2.426 109.435  0.00  0.00    +0.000 C 
BRANCH  17  18
ATOM     18  O   UNL     1      -5.899   2.976 109.321  0.00  0.00    +0.000 OA
ATOM     19  H   UNL     1      -5.690   3.389 108.460  0.00  0.00    +0.000 HD
ENDBRANCH  17  18
ENDBRANCH  15  17
ENDBRANCH   6  15
TORSDOF 4
ENDMDL
